REMARK SMILES Oc1ccccc1O
REMARK SMILES IDX 2 1 3 2 4 3 5 4 6 5 7 6 1 7 8 9
REMARK H PARENT 1 8 8 10
ROOT
ATOM      1  C   UNL     1       0.749  -0.629   0.065  1.00  0.00    +0.157 A 
ATOM      2  C   UNL     1      -0.460  -1.194   0.452  1.00  0.00    +0.050 A 
ATOM      3  C   UNL     1      -1.619  -0.414   0.412  1.00  0.00    +0.004 A 
ATOM      4  C   UNL     1      -1.560   0.918  -0.012  1.00  0.00    +0.004 A 
ATOM      5  C   UNL     1      -0.342   1.478  -0.400  1.00  0.00    +0.050 A 
ATOM      6  C   UNL     1       0.804   0.697  -0.358  1.00  0.00    +0.157 A 
ENDROOT
BRANCH   1   7
ATOM      7  O   UNL     1       1.918  -1.340   0.081  1.00  0.00    -0.504 OA
ATOM      8  H   UNL     1       1.718  -2.238   0.396  1.00  0.00    +0.293 HD
ENDBRANCH   1   7
BRANCH   6   9
ATOM      9  O   UNL     1       1.997   1.243  -0.737  1.00  0.00    -0.504 OA
ATOM     10  H   UNL     1       2.642   0.517  -0.624  1.00  0.00    +0.293 HD
ENDBRANCH   6   9
TORSDOF 2
