REMARK SMILES O=C(NO)c1c(O)ccccc1=O
REMARK SMILES IDX 13 1 12 2 11 3 10 4 9 5 8 6 6 7 5 8 2 9 1 10 3 11 4 13 7 15
REMARK H PARENT 3 12 4 14 7 16
ROOT
ATOM      1  O   UNL     1       0.374  -2.173  -0.704  1.00  0.00    -0.289 OA
ATOM      2  C   UNL     1      -0.188  -1.272  -0.103  1.00  0.00    +0.195 A 
ATOM      3  C   UNL     1      -1.565  -1.623   0.419  1.00  0.00    +0.053 A 
ATOM      4  C   UNL     1      -2.571  -0.747   0.463  1.00  0.00    +0.004 A 
ATOM      5  C   UNL     1      -2.522   0.566   0.210  1.00  0.00    +0.004 A 
ATOM      6  C   UNL     1      -1.502   1.401  -0.037  1.00  0.00    +0.047 A 
ATOM      7  C   UNL     1      -0.166   1.245  -0.103  1.00  0.00    +0.132 A 
ATOM      8  C   UNL     1       0.498   0.077  -0.044  1.00  0.00    +0.130 A 
ENDROOT
BRANCH   8   9
ATOM      9  C   UNL     1       1.986   0.096   0.041  1.00  0.00    +0.282 C 
ATOM     10  O   UNL     1       2.603   0.802   0.838  1.00  0.00    -0.267 OA
ATOM     11  N   UNL     1       2.635  -0.792  -0.784  1.00  0.00    -0.234 N 
ATOM     12  H   UNL     1       2.143  -1.597  -1.177  1.00  0.00    +0.199 HD
BRANCH  11  13
ATOM     13  O   UNL     1       4.020  -0.952  -0.534  1.00  0.00    -0.288 OA
ATOM     14  H   UNL     1       4.182  -0.281   0.165  1.00  0.00    +0.246 HD
ENDBRANCH  11  13
ENDBRANCH   8   9
BRANCH   7  15
ATOM     15  O   UNL     1       0.594   2.411  -0.257  1.00  0.00    -0.507 OA
ATOM     16  H   UNL     1       0.120   3.167   0.129  1.00  0.00    +0.293 HD
ENDBRANCH   7  15
TORSDOF 3
