REMARK SMILES N[C@@H](CC1=CC(=O)C(O)=NC1=O)C(=O)O
REMARK SMILES IDX 2 1 1 2 3 5 4 6 5 7 11 8 6 9 10 10 12 11 7 12 8 13 9 14
REMARK SMILES IDX 13 16 14 17 15 18
REMARK H PARENT 1 3 1 4 9 15 15 19
ROOT
ATOM      1  C   UNL     1      -1.762  -0.035  -0.190  1.00  0.00    +0.166 C 
ENDROOT
BRANCH   1   2
ATOM      2  N   UNL     1      -1.587   1.056   0.805  1.00  0.00    -0.318 NA
ATOM      3  H   UNL     1      -0.927   1.737   0.430  1.00  0.00    +0.119 HD
ATOM      4  H   UNL     1      -2.482   1.557   0.853  1.00  0.00    +0.119 HD
ENDBRANCH   1   2
BRANCH   1   5
ATOM      5  C   UNL     1      -0.713  -1.144   0.017  1.00  0.00    +0.072 C 
BRANCH   5   6
ATOM      6  C   UNL     1       0.723  -0.668  -0.005  1.00  0.00    +0.026 C 
ATOM      7  C   UNL     1       1.497  -0.715   1.088  1.00  0.00    +0.067 C 
ATOM      8  C   UNL     1       1.239  -0.172  -1.322  1.00  0.00    +0.276 C 
ATOM      9  C   UNL     1       2.884  -0.250   1.004  1.00  0.00    +0.240 C 
ATOM     10  N   UNL     1       2.522   0.307  -1.392  1.00  0.00    -0.170 NA
ATOM     11  O   UNL     1       0.501  -0.194  -2.300  1.00  0.00    -0.267 OA
ATOM     12  O   UNL     1       3.647  -0.286   1.953  1.00  0.00    -0.284 OA
ATOM     13  C   UNL     1       3.280   0.277  -0.357  1.00  0.00    +0.263 C 
BRANCH  13  14
ATOM     14  O   UNL     1       4.522   0.742  -0.449  1.00  0.00    -0.490 OA
ATOM     15  H   UNL     1       4.671   1.048  -1.359  1.00  0.00    +0.295 HD
ENDBRANCH  13  14
ENDBRANCH   5   6
ENDBRANCH   1   5
BRANCH   1  16
ATOM     16  C   UNL     1      -3.169  -0.635  -0.069  1.00  0.00    +0.320 C 
ATOM     17  O   UNL     1      -3.492  -1.800  -0.240  1.00  0.00    -0.251 OA
BRANCH  16  18
ATOM     18  O   UNL     1      -4.111   0.297   0.214  1.00  0.00    -0.480 OA
ATOM     19  H   UNL     1      -4.944  -0.218   0.251  1.00  0.00    +0.296 HD
ENDBRANCH  16  18
ENDBRANCH   1  16
TORSDOF 6
