REMARK SMILES O=C1C=C(CO)OC1=O
REMARK SMILES IDX 5 1 4 2 9 3 8 4 7 5 2 6 3 7 1 8 6 9
REMARK H PARENT 6 10
ROOT
ATOM      1  C   UNL     1      -1.725  -0.078  -0.265  1.00  0.00    +0.231 C 
ENDROOT
BRANCH   1   2
ATOM      2  C   UNL     1      -0.236   0.012  -0.179  1.00  0.00    +0.138 C 
ATOM      3  O   UNL     1       2.757  -1.518  -0.630  1.00  0.00    -0.242 OA
ATOM      4  C   UNL     1       1.795  -0.813  -0.410  1.00  0.00    +0.384 C 
ATOM      5  O   UNL     1       0.480  -1.133  -0.566  1.00  0.00    -0.422 OA
ATOM      6  C   UNL     1       1.827   0.621   0.101  1.00  0.00    +0.266 C 
ATOM      7  C   UNL     1       0.458   1.077   0.217  1.00  0.00    +0.105 C 
ATOM      8  O   UNL     1       2.813   1.272   0.368  1.00  0.00    -0.282 OA
ENDBRANCH   1   2
BRANCH   1   9
ATOM      9  O   UNL     1      -2.193  -1.108   0.591  1.00  0.00    -0.388 OA
ATOM     10  H   UNL     1      -1.877  -0.922   1.490  1.00  0.00    +0.211 HD
ENDBRANCH   1   9
TORSDOF 2
