REMARK SMILES CC(C)c1c(O)ccccc1=O
REMARK SMILES IDX 12 1 11 2 10 3 9 4 8 5 7 6 5 7 4 8 2 9 1 10 3 11 6 12
REMARK H PARENT 6 13
ROOT
ATOM      1  O   UNL     1      -0.239   2.144  -0.352  1.00  0.00    -0.289 OA
ATOM      2  C   UNL     1       0.406   1.127  -0.531  1.00  0.00    +0.185 A 
ATOM      3  C   UNL     1       1.651   1.308  -1.371  1.00  0.00    +0.052 A 
ATOM      4  C   UNL     1       2.799   0.680  -1.111  1.00  0.00    +0.004 A 
ATOM      5  C   UNL     1       3.002  -0.291  -0.215  1.00  0.00    +0.004 A 
ATOM      6  C   UNL     1       2.159  -0.987   0.562  1.00  0.00    +0.046 A 
ATOM      7  C   UNL     1       0.828  -0.998   0.726  1.00  0.00    +0.122 A 
ATOM      8  C   UNL     1      -0.067  -0.150   0.176  1.00  0.00    +0.044 A 
ENDROOT
BRANCH   8   9
ATOM      9  C   UNL     1      -1.578  -0.372   0.235  1.00  0.00    +0.021 C 
ATOM     10  C   UNL     1      -2.247   0.466   1.327  1.00  0.00    +0.013 C 
ATOM     11  C   UNL     1      -2.264  -0.156  -1.120  1.00  0.00    +0.013 C 
ENDBRANCH   8   9
BRANCH   7  12
ATOM     12  O   UNL     1       0.373  -2.031   1.556  1.00  0.00    -0.508 OA
ATOM     13  H   UNL     1      -0.425  -1.725   2.018  1.00  0.00    +0.293 HD
ENDBRANCH   7  12
TORSDOF 2
