REMARK SMILES Oc1cccc(O)c1Cl
REMARK SMILES IDX 2 1 3 2 4 3 5 4 6 5 8 6 9 7 1 8 7 10
REMARK H PARENT 1 9 7 11
ROOT
ATOM      1  C   UNL     1      -1.259   0.355  -0.236  1.00  0.00    +0.137 A 
ATOM      2  C   UNL     1      -1.050  -0.893  -0.815  1.00  0.00    +0.048 A 
ATOM      3  C   UNL     1       0.202  -1.500  -0.712  1.00  0.00    +0.008 A 
ATOM      4  C   UNL     1       1.241  -0.859  -0.032  1.00  0.00    +0.048 A 
ATOM      5  C   UNL     1       1.023   0.394   0.547  1.00  0.00    +0.137 A 
ATOM      6  C   UNL     1      -0.229   1.008   0.447  1.00  0.00    +0.124 A 
ATOM      7 Cl   UNL     1      -0.528   2.558   1.153  1.00  0.00    -0.076 Cl
ENDROOT
BRANCH   1   8
ATOM      8  O   UNL     1      -2.507   0.904  -0.368  1.00  0.00    -0.506 OA
ATOM      9  H   UNL     1      -2.486   1.767   0.087  1.00  0.00    +0.293 HD
ENDBRANCH   1   8
BRANCH   5  10
ATOM     10  O   UNL     1       2.042   1.020   1.212  1.00  0.00    -0.506 OA
ATOM     11  H   UNL     1       2.835   0.461   1.187  1.00  0.00    +0.293 HD
ENDBRANCH   5  10
TORSDOF 2
