REMARK SMILES CC(C)(C)c1ccc(O)c(O)c1
REMARK SMILES IDX 8 1 7 2 6 3 5 4 12 5 10 6 9 7 11 9 2 11 1 12 3 13 4 14
REMARK H PARENT 9 8 11 10
ROOT
ATOM      1  C   UNL     1       2.781   0.850   0.275  1.00  0.00    +0.157 A 
ATOM      2  C   UNL     1       1.873   1.806  -0.139  1.00  0.00    +0.050 A 
ATOM      3  C   UNL     1       0.529   1.452  -0.286  1.00  0.00    +0.008 A 
ATOM      4  C   UNL     1       0.072   0.140  -0.024  1.00  0.00    -0.039 A 
ATOM      5  C   UNL     1       1.024  -0.809   0.396  1.00  0.00    +0.054 A 
ATOM      6  C   UNL     1       2.364  -0.449   0.541  1.00  0.00    +0.157 A 
ENDROOT
BRANCH   1   7
ATOM      7  O   UNL     1       4.095   1.190   0.421  1.00  0.00    -0.504 OA
ATOM      8  H   UNL     1       4.527   0.364   0.715  1.00  0.00    +0.293 HD
ENDBRANCH   1   7
BRANCH   6   9
ATOM      9  O   UNL     1       3.313  -1.348   0.947  1.00  0.00    -0.504 OA
ATOM     10  H   UNL     1       2.875  -2.203   1.093  1.00  0.00    +0.293 HD
ENDBRANCH   6   9
BRANCH   4  11
ATOM     11  C   UNL     1      -1.419  -0.202  -0.201  1.00  0.00    -0.013 C 
ATOM     12  C   UNL     1      -1.767  -1.673   0.123  1.00  0.00    +0.016 C 
ATOM     13  C   UNL     1      -2.270   0.684   0.735  1.00  0.00    +0.016 C 
ATOM     14  C   UNL     1      -1.840   0.054  -1.665  1.00  0.00    +0.016 C 
ENDBRANCH   4  11
TORSDOF 3
