REMARK SMILES COc1ccc(O)cc1
REMARK SMILES IDX 3 1 4 2 5 3 6 4 8 5 9 6 2 7 1 8 7 9
REMARK H PARENT 7 10
ROOT
ATOM      1  C   UNL     1      -0.639   0.337   0.219  1.00  0.00    +0.119 A 
ATOM      2  C   UNL     1      -0.230  -0.722  -0.593  1.00  0.00    +0.050 A 
ATOM      3  C   UNL     1       1.130  -1.020  -0.724  1.00  0.00    +0.050 A 
ATOM      4  C   UNL     1       2.075  -0.260  -0.045  1.00  0.00    +0.115 A 
ATOM      5  C   UNL     1       1.684   0.798   0.766  1.00  0.00    +0.050 A 
ATOM      6  C   UNL     1       0.325   1.093   0.895  1.00  0.00    +0.050 A 
ENDROOT
BRANCH   1   7
ATOM      7  O   UNL     1      -1.930   0.735   0.435  1.00  0.00    -0.497 OA
ATOM      8  C   UNL     1      -2.948  -0.002  -0.231  1.00  0.00    +0.278 C 
ENDBRANCH   1   7
BRANCH   4   9
ATOM      9  O   UNL     1       3.388  -0.588  -0.204  1.00  0.00    -0.508 OA
ATOM     10  H   UNL     1       3.925   0.025   0.325  1.00  0.00    +0.293 HD
ENDBRANCH   4   9
TORSDOF 2
