REMARK SMILES Oc1ccc(F)cc1O
REMARK SMILES IDX 2 1 3 2 4 3 5 4 6 5 7 6 8 7 1 8 9 10
REMARK H PARENT 1 9 9 11
ROOT
ATOM      1  C   UNL     1      -0.788  -0.624  -0.241  1.00  0.00    +0.157 A 
ATOM      2  C   UNL     1       0.369  -1.285  -0.634  1.00  0.00    +0.053 A 
ATOM      3  C   UNL     1       1.606  -0.676  -0.415  1.00  0.00    +0.043 A 
ATOM      4  C   UNL     1       1.661   0.580   0.190  1.00  0.00    +0.127 A 
ATOM      5  F   UNL     1       2.852   1.154   0.401  1.00  0.00    -0.207 F 
ATOM      6  C   UNL     1       0.502   1.250   0.569  1.00  0.00    +0.089 A 
ATOM      7  C   UNL     1      -0.723   0.645   0.332  1.00  0.00    +0.160 A 
ENDROOT
BRANCH   1   8
ATOM      8  O   UNL     1      -1.989  -1.252  -0.397  1.00  0.00    -0.504 OA
ATOM      9  H   UNL     1      -2.521  -1.019   0.386  1.00  0.00    +0.293 HD
ENDBRANCH   1   8
BRANCH   7  10
ATOM     10  O   UNL     1      -1.866   1.323   0.642  1.00  0.00    -0.504 OA
ATOM     11  H   UNL     1      -2.507   1.113  -0.062  1.00  0.00    +0.293 HD
ENDBRANCH   7  10
TORSDOF 2
