REMARK SMILES C[C@H]1C(=O)C=C(CO)OC1=O
REMARK SMILES IDX 7 1 6 2 11 3 10 4 9 5 2 6 3 7 5 8 4 9 1 10 8 11
REMARK H PARENT 8 12
ROOT
ATOM      1  C   UNL     1       2.742  -0.153   0.386  1.00  0.00    +0.231 C 
ENDROOT
BRANCH   1   2
ATOM      2  C   UNL     1       1.250  -0.104   0.266  1.00  0.00    +0.136 C 
ATOM      3  O   UNL     1      -0.863   0.639  -2.486  1.00  0.00    -0.251 OA
ATOM      4  C   UNL     1      -0.523   0.410  -1.327  1.00  0.00    +0.321 C 
ATOM      5  O   UNL     1       0.791   0.238  -1.022  1.00  0.00    -0.428 OA
ATOM      6  C   UNL     1      -1.511   0.372  -0.192  1.00  0.00    +0.168 C 
ATOM      7  C   UNL     1      -1.016  -0.304   1.057  1.00  0.00    +0.173 C 
ATOM      8  C   UNL     1       0.429  -0.403   1.275  1.00  0.00    +0.093 C 
ATOM      9  O   UNL     1      -1.765  -0.717   1.941  1.00  0.00    -0.294 OA
ATOM     10  C   UNL     1      -2.811  -0.287  -0.654  1.00  0.00    +0.029 C 
ENDBRANCH   1   2
BRANCH   1  11
ATOM     11  O   UNL     1       3.229   1.180   0.379  1.00  0.00    -0.388 OA
ATOM     12  H   UNL     1       4.196   1.128   0.294  1.00  0.00    +0.211 HD
ENDBRANCH   1  11
TORSDOF 2
