REMARK SMILES O=C1C=C(CO)OC(=O)[C@H]1Cl
REMARK SMILES IDX 5 1 4 2 9 3 8 4 7 5 10 6 2 7 3 8 1 9 11 10 6 11
REMARK H PARENT 6 12
ROOT
ATOM      1  C   UNL     1      -2.112  -0.481   0.594  1.00  0.00    +0.231 C 
ENDROOT
BRANCH   1   2
ATOM      2  C   UNL     1      -0.691  -0.194   0.199  1.00  0.00    +0.137 C 
ATOM      3  O   UNL     1       1.616   2.264   1.325  1.00  0.00    -0.249 OA
ATOM      4  C   UNL     1       1.187   1.273   0.738  1.00  0.00    +0.337 C 
ATOM      5  O   UNL     1      -0.109   0.886   0.896  1.00  0.00    -0.427 OA
ATOM      6  C   UNL     1       2.056   0.431  -0.146  1.00  0.00    +0.262 C 
ATOM      7  C   UNL     1       1.348  -0.536  -1.041  1.00  0.00    +0.188 C 
ATOM      8  C   UNL     1      -0.043  -0.891  -0.736  1.00  0.00    +0.094 C 
ATOM      9  O   UNL     1       1.887  -1.078  -2.006  1.00  0.00    -0.292 OA
ATOM     10 Cl   UNL     1       3.173  -0.499   0.890  1.00  0.00    -0.101 Cl
ENDBRANCH   1   2
BRANCH   1  11
ATOM     11  O   UNL     1      -2.930   0.637   0.284  1.00  0.00    -0.388 OA
ATOM     12  H   UNL     1      -2.847   0.815  -0.668  1.00  0.00    +0.211 HD
ENDBRANCH   1  11
TORSDOF 2
