REMARK SMILES COCC1=CC(=O)C(=O)O1
REMARK SMILES IDX 3 1 4 2 9 3 8 4 10 5 6 6 5 7 7 8 2 9 1 10
REMARK H PARENT
ROOT
ATOM      1  C   UNL     1      -0.957   0.575   0.856  1.00  0.00    +0.235 C 
ENDROOT
BRANCH   1   2
ATOM      2  C   UNL     1       0.446   0.335   0.389  1.00  0.00    +0.138 C 
ATOM      3  O   UNL     1       3.349  -1.367   0.799  1.00  0.00    -0.242 OA
ATOM      4  C   UNL     1       2.403  -0.670   0.499  1.00  0.00    +0.384 C 
ATOM      5  O   UNL     1       1.185  -0.620   1.106  1.00  0.00    -0.422 OA
ATOM      6  C   UNL     1       2.355   0.340  -0.639  1.00  0.00    +0.266 C 
ATOM      7  C   UNL     1       1.043   0.950  -0.630  1.00  0.00    +0.105 C 
ATOM      8  O   UNL     1       3.248   0.597  -1.417  1.00  0.00    -0.282 OA
ENDBRANCH   1   2
BRANCH   1   9
ATOM      9  O   UNL     1      -1.721  -0.625   0.760  1.00  0.00    -0.377 OA
ATOM     10  C   UNL     1      -2.297  -0.819  -0.524  1.00  0.00    +0.195 C 
ENDBRANCH   1   9
TORSDOF 2
