REMARK SMILES O=Cc1ccc(O)cc1
REMARK SMILES IDX 3 1 4 2 5 3 6 4 8 5 9 6 2 7 1 8 7 9
REMARK H PARENT 7 10
ROOT
ATOM      1  C   UNL     1       1.132  -0.024  -0.040  1.00  0.00    +0.015 A 
ATOM      2  C   UNL     1       0.410   1.133   0.277  1.00  0.00    +0.015 A 
ATOM      3  C   UNL     1      -0.985   1.095   0.308  1.00  0.00    +0.047 A 
ATOM      4  C   UNL     1      -1.642  -0.099   0.023  1.00  0.00    +0.115 A 
ATOM      5  C   UNL     1      -0.929  -1.253  -0.292  1.00  0.00    +0.047 A 
ATOM      6  C   UNL     1       0.466  -1.219  -0.325  1.00  0.00    +0.015 A 
ENDROOT
BRANCH   1   7
ATOM      7  C   UNL     1       2.608   0.009  -0.075  1.00  0.00    +0.260 C 
ATOM      8  O   UNL     1       3.242   1.028   0.166  1.00  0.00    -0.298 OA
ENDBRANCH   1   7
BRANCH   4   9
ATOM      9  O   UNL     1      -3.002  -0.183   0.042  1.00  0.00    -0.508 OA
ATOM     10  H   UNL     1      -3.366   0.688   0.275  1.00  0.00    +0.293 HD
ENDBRANCH   4   9
TORSDOF 2
