REMARK SMILES O=C(O)/C=C/c1ccc(O)c(O)c1
REMARK SMILES IDX 4 1 5 2 2 3 1 4 3 5 6 7 7 8 13 9 8 10 11 11 9 12 12 13 10 15
REMARK H PARENT 3 6 12 14 10 16
ROOT
ATOM      1  C   UNL     1       2.431  -0.221  -0.269  1.00  0.00    +0.094 C 
ATOM      2  C   UNL     1       1.380   0.527   0.103  1.00  0.00    +0.016 C 
ENDROOT
BRANCH   1   3
ATOM      3  C   UNL     1       3.805   0.292  -0.350  1.00  0.00    +0.328 C 
ATOM      4  O   UNL     1       4.769  -0.377  -0.676  1.00  0.00    -0.247 OA
BRANCH   3   5
ATOM      5  O   UNL     1       3.925   1.589  -0.030  1.00  0.00    -0.478 OA
ATOM      6  H   UNL     1       4.884   1.765  -0.130  1.00  0.00    +0.297 HD
ENDBRANCH   3   5
ENDBRANCH   1   3
BRANCH   2   7
ATOM      7  C   UNL     1       0.003   0.019   0.174  1.00  0.00    -0.021 A 
ATOM      8  C   UNL     1      -0.294  -1.268   0.656  1.00  0.00    +0.012 A 
ATOM      9  C   UNL     1      -1.049   0.869  -0.202  1.00  0.00    +0.058 A 
ATOM     10  C   UNL     1      -1.617  -1.712   0.737  1.00  0.00    +0.051 A 
ATOM     11  C   UNL     1      -2.363   0.418  -0.119  1.00  0.00    +0.157 A 
ATOM     12  C   UNL     1      -2.640  -0.864   0.346  1.00  0.00    +0.157 A 
BRANCH  11  13
ATOM     13  O   UNL     1      -3.422   1.203  -0.483  1.00  0.00    -0.504 OA
ATOM     14  H   UNL     1      -3.076   2.059  -0.789  1.00  0.00    +0.293 HD
ENDBRANCH  11  13
BRANCH  12  15
ATOM     15  O   UNL     1      -3.932  -1.297   0.425  1.00  0.00    -0.504 OA
ATOM     16  H   UNL     1      -4.464  -0.542   0.105  1.00  0.00    +0.293 HD
ENDBRANCH  12  15
ENDBRANCH   2   7
TORSDOF 5
