REMARK SMILES Oc1cc(O)cc(/C=C/c2ccc(O)c(O)c2)c1
REMARK SMILES IDX 9 1 8 2 10 3 13 4 12 5 15 6 11 7 17 8 14 9 16 11 7 13 18 14
REMARK SMILES IDX 6 15 2 16 4 17 3 18 1 19 5 21
REMARK H PARENT 14 10 16 12 1 20 5 22
ROOT
ATOM      1  C   UNL     1       0.318   0.398   0.502  1.00  0.00    +0.009 C 
ATOM      2  C   UNL     1      -0.575  -0.379  -0.131  1.00  0.00    +0.009 C 
ENDROOT
BRANCH   1   3
ATOM      3  C   UNL     1       1.775   0.226   0.394  1.00  0.00    -0.022 A 
ATOM      4  C   UNL     1       4.562  -0.011   0.269  1.00  0.00    +0.157 A 
ATOM      5  C   UNL     1       3.966   0.373   1.463  1.00  0.00    +0.051 A 
ATOM      6  C   UNL     1       3.781  -0.264  -0.854  1.00  0.00    +0.157 A 
ATOM      7  C   UNL     1       2.573   0.496   1.520  1.00  0.00    +0.012 A 
ATOM      8  C   UNL     1       2.397  -0.144  -0.806  1.00  0.00    +0.058 A 
BRANCH   4   9
ATOM      9  O   UNL     1       5.916  -0.149   0.147  1.00  0.00    -0.504 OA
ATOM     10  H   UNL     1       6.320   0.059   1.007  1.00  0.00    +0.293 HD
ENDBRANCH   4   9
BRANCH   6  11
ATOM     11  O   UNL     1       4.376  -0.632  -2.028  1.00  0.00    -0.504 OA
ATOM     12  H   UNL     1       5.332  -0.646  -1.823  1.00  0.00    +0.293 HD
ENDBRANCH   6  11
ENDBRANCH   1   3
BRANCH   2  13
ATOM     13  C   UNL     1      -2.029  -0.195  -0.020  1.00  0.00    -0.018 A 
ATOM     14  C   UNL     1      -2.655   0.025   1.216  1.00  0.00    +0.054 A 
ATOM     15  C   UNL     1      -2.814  -0.295  -1.177  1.00  0.00    +0.054 A 
ATOM     16  C   UNL     1      -4.041   0.167   1.276  1.00  0.00    +0.119 A 
ATOM     17  C   UNL     1      -4.198  -0.148  -1.093  1.00  0.00    +0.119 A 
ATOM     18  C   UNL     1      -4.817   0.085   0.128  1.00  0.00    +0.092 A 
BRANCH  16  19
ATOM     19  O   UNL     1      -4.680   0.384   2.462  1.00  0.00    -0.508 OA
ATOM     20  H   UNL     1      -4.021   0.400   3.175  1.00  0.00    +0.293 HD
ENDBRANCH  16  19
BRANCH  17  21
ATOM     21  O   UNL     1      -4.988  -0.228  -2.203  1.00  0.00    -0.508 OA
ATOM     22  H   UNL     1      -4.424  -0.380  -2.979  1.00  0.00    +0.293 HD
ENDBRANCH  17  21
ENDBRANCH   2  13
TORSDOF 6
