REMARK SMILES Oc1ccc(O)cc1
REMARK SMILES IDX 2 1 3 2 4 3 5 4 7 5 8 6 1 7 6 9
REMARK H PARENT 1 8 6 10
ROOT
ATOM      1  C   UNL     1       1.341  -0.333  -0.074  1.00  0.00    +0.115 A 
ATOM      2  C   UNL     1       0.977   0.972   0.248  1.00  0.00    +0.050 A 
ATOM      3  C   UNL     1      -0.376   1.305   0.322  1.00  0.00    +0.050 A 
ATOM      4  C   UNL     1      -1.341   0.333   0.074  1.00  0.00    +0.115 A 
ATOM      5  C   UNL     1      -0.977  -0.972  -0.248  1.00  0.00    +0.050 A 
ATOM      6  C   UNL     1       0.376  -1.305  -0.322  1.00  0.00    +0.050 A 
ENDROOT
BRANCH   1   7
ATOM      7  O   UNL     1       2.650  -0.704  -0.159  1.00  0.00    -0.508 OA
ATOM      8  H   UNL     1       3.204   0.069   0.037  1.00  0.00    +0.293 HD
ENDBRANCH   1   7
BRANCH   4   9
ATOM      9  O   UNL     1      -2.650   0.704   0.159  1.00  0.00    -0.508 OA
ATOM     10  H   UNL     1      -3.204  -0.069  -0.037  1.00  0.00    +0.293 HD
ENDBRANCH   4   9
TORSDOF 2
