REMARK SMILES OC[C@H]1O[C@@H](Oc2ccc(O)cc2)[C@H](O)[C@@H](O)[C@@H]1O
REMARK SMILES IDX 3 1 4 2 5 3 14 4 16 5 18 6 2 7 1 8 19 10 6 12 7 13 8 14
REMARK SMILES IDX 13 15 9 16 12 17 10 18 11 19 17 21 15 23
REMARK H PARENT 1 9 19 11 11 20 17 22 15 24
ROOT
ATOM      1  C   UNL     1      -1.995  -0.285  -0.882  1.00  0.00    +0.179 C 
ATOM      2  O   UNL     1      -0.712   0.340  -0.683  1.00  0.00    -0.332 OA
ATOM      3  C   UNL     1      -0.257   0.223   0.668  1.00  0.00    +0.339 C 
ATOM      4  C   UNL     1      -1.232   0.957   1.610  1.00  0.00    +0.214 C 
ATOM      5  C   UNL     1      -2.638   0.386   1.441  1.00  0.00    +0.180 C 
ATOM      6  C   UNL     1      -3.065   0.403  -0.028  1.00  0.00    +0.177 C 
ENDROOT
BRANCH   1   7
ATOM      7  C   UNL     1      -2.321  -0.196  -2.375  1.00  0.00    +0.191 C 
BRANCH   7   8
ATOM      8  O   UNL     1      -1.259  -0.792  -3.126  1.00  0.00    -0.394 OA
ATOM      9  H   UNL     1      -0.447  -0.337  -2.829  1.00  0.00    +0.210 HD
ENDBRANCH   7   8
ENDBRANCH   1   7
BRANCH   6  10
ATOM     10  O   UNL     1      -4.327  -0.251  -0.157  1.00  0.00    -0.387 OA
ATOM     11  H   UNL     1      -4.895   0.142   0.537  1.00  0.00    +0.211 HD
ENDBRANCH   6  10
BRANCH   3  12
ATOM     12  O   UNL     1       1.020   0.854   0.841  1.00  0.00    -0.462 OA
BRANCH  12  13
ATOM     13  C   UNL     1       2.118   0.229   0.319  1.00  0.00    +0.123 A 
ATOM     14  C   UNL     1       3.338   0.826   0.649  1.00  0.00    +0.050 A 
ATOM     15  C   UNL     1       2.112  -0.908  -0.494  1.00  0.00    +0.050 A 
ATOM     16  C   UNL     1       4.540   0.291   0.184  1.00  0.00    +0.050 A 
ATOM     17  C   UNL     1       3.316  -1.446  -0.963  1.00  0.00    +0.050 A 
ATOM     18  C   UNL     1       4.521  -0.842  -0.618  1.00  0.00    +0.115 A 
BRANCH  18  19
ATOM     19  O   UNL     1       5.714  -1.333  -1.055  1.00  0.00    -0.508 OA
ATOM     20  H   UNL     1       5.546  -2.106  -1.619  1.00  0.00    +0.293 HD
ENDBRANCH  18  19
ENDBRANCH  12  13
ENDBRANCH   3  12
BRANCH   5  21
ATOM     21  O   UNL     1      -3.582   1.147   2.211  1.00  0.00    -0.387 OA
ATOM     22  H   UNL     1      -3.178   1.233   3.099  1.00  0.00    +0.211 HD
ENDBRANCH   5  21
BRANCH   4  23
ATOM     23  O   UNL     1      -0.851   0.820   2.990  1.00  0.00    -0.384 OA
ATOM     24  H   UNL     1       0.083   1.106   3.041  1.00  0.00    +0.211 HD
ENDBRANCH   4  23
TORSDOF 8
