REMARK SMILES O=c1cc(O)ccc([N+](=O)[O-])c1
REMARK SMILES IDX 1 1 2 2 12 3 8 4 7 5 6 6 4 7 3 8 9 9 10 10 11 11 5 12
REMARK H PARENT 5 13
ROOT
ATOM      1  O   UNL     1      -0.152   3.043   0.011  1.00  0.00    -0.290 OA
ATOM      2  C   UNL     1      -0.181   1.827   0.027  1.00  0.00    +0.189 A 
ATOM      3  C   UNL     1       1.164   1.147  -0.033  1.00  0.00    +0.137 A 
ATOM      4  C   UNL     1       1.315  -0.179  -0.062  1.00  0.00    +0.273 A 
ATOM      5  C   UNL     1       0.397  -1.159  -0.038  1.00  0.00    +0.089 A 
ATOM      6  C   UNL     1      -0.944  -1.119   0.027  1.00  0.00    +0.053 A 
ATOM      7  C   UNL     1      -1.829  -0.111   0.088  1.00  0.00    +0.119 A 
ATOM      8  C   UNL     1      -1.550   1.194   0.095  1.00  0.00    +0.098 A 
ENDROOT
BRANCH   4   9
ATOM      9  N   UNL     1       2.722  -0.634  -0.133  1.00  0.00    +0.062 N 
ATOM     10  O   UNL     1       2.969  -1.642  -0.810  1.00  0.00    -0.258 OA
ATOM     11  O   UNL     1       3.571   0.018   0.493  1.00  0.00    -0.258 OA
ENDBRANCH   4   9
BRANCH   7  12
ATOM     12  O   UNL     1      -3.191  -0.414   0.152  1.00  0.00    -0.508 OA
ATOM     13  H   UNL     1      -3.324  -1.376   0.132  1.00  0.00    +0.293 HD
ENDBRANCH   7  12
TORSDOF 2
