REMARK SMILES O=c1ccccc(O)c1Cl
REMARK SMILES IDX 1 1 2 2 3 3 4 4 5 5 6 6 7 7 9 8 10 9 8 10
REMARK H PARENT 8 11
ROOT
ATOM      1  O   UNL     1      -0.902   2.686  -0.128  1.00  0.00    -0.288 OA
ATOM      2  C   UNL     1      -0.603   1.504  -0.142  1.00  0.00    +0.200 A 
ATOM      3  C   UNL     1      -1.801   0.570  -0.118  1.00  0.00    +0.054 A 
ATOM      4  C   UNL     1      -1.745  -0.750   0.062  1.00  0.00    +0.004 A 
ATOM      5  C   UNL     1      -0.661  -1.519   0.209  1.00  0.00    +0.004 A 
ATOM      6  C   UNL     1       0.649  -1.242   0.189  1.00  0.00    +0.048 A 
ATOM      7  C   UNL     1       1.360  -0.120   0.018  1.00  0.00    +0.138 A 
ATOM      8  C   UNL     1       0.876   1.122  -0.159  1.00  0.00    +0.130 A 
ATOM      9 Cl   UNL     1       1.997   2.441  -0.408  1.00  0.00    -0.076 Cl
ENDROOT
BRANCH   7  10
ATOM     10  O   UNL     1       2.752  -0.314   0.026  1.00  0.00    -0.506 OA
ATOM     11  H   UNL     1       3.173   0.557  -0.105  1.00  0.00    +0.293 HD
ENDBRANCH   7  10
TORSDOF 1
