REMARK SMILES Cc1c(O)ccccc1=O
REMARK SMILES IDX 10 1 9 2 8 3 7 4 6 5 5 6 3 7 2 8 1 9 4 10
REMARK H PARENT 4 11
ROOT
ATOM      1  O   UNL     1      -0.346  -2.087  -1.385  1.00  0.00    -0.290 OA
ATOM      2  C   UNL     1       0.087  -1.260  -0.601  1.00  0.00    +0.185 A 
ATOM      3  C   UNL     1       1.552  -1.418  -0.256  1.00  0.00    +0.052 A 
ATOM      4  C   UNL     1       2.339  -0.416   0.137  1.00  0.00    +0.004 A 
ATOM      5  C   UNL     1       1.982   0.844   0.402  1.00  0.00    +0.004 A 
ATOM      6  C   UNL     1       0.788   1.449   0.448  1.00  0.00    +0.046 A 
ATOM      7  C   UNL     1      -0.477   1.043   0.266  1.00  0.00    +0.122 A 
ATOM      8  C   UNL     1      -0.888  -0.179  -0.123  1.00  0.00    +0.038 A 
ATOM      9  C   UNL     1      -2.333  -0.612  -0.151  1.00  0.00    +0.053 C 
ENDROOT
BRANCH   7  10
ATOM     10  O   UNL     1      -1.431   2.035   0.527  1.00  0.00    -0.508 OA
ATOM     11  H   UNL     1      -2.211   1.869  -0.028  1.00  0.00    +0.293 HD
ENDBRANCH   7  10
TORSDOF 1
